# vtk DataFile Version 4.2
vtk output
ASCII
DATASET POLYDATA
POINTS 120 float
2.92166 -4.24846 -4.37726 2.8507 -4.19798 -4.38072 3.37139 -4.50977 -4.34987 
3.29166 -4.47674 -4.35596 2.49166 -1.46751 -4.16733 2.55342 -1.40748 -4.15462 
2.10858 -3.36976 -4.38888 2.07499 -3.28942 -4.38525 1.95446 -2.52464 -4.32778 
1.96548 -2.43893 -4.31852 4.42312 -4.27159 -4.20658 4.35077 -4.31832 -4.21927 
4.27384 -1.35805 -3.95197 4.34314 -1.41082 -3.94892 1.98143 -2.35375 -4.30874 
2.00282 -2.27016 -4.29848 1.96278 -2.87068 -4.35911 1.95334 -2.78444 -4.35215 
3.89974 -1.13806 -3.97451 3.97818 -1.17519 -3.96895 3.65341 -1.05387 -3.99501 
3.73721 -1.07707 -3.98753 4.12412 -4.44263 -4.25696 4.04524 -4.47713 -4.26925 
4.71305 -1.77789 -3.94058 4.76255 -1.8494 -3.94155 4.20143 -4.40428 -4.24448 
2.27032 -1.73132 -4.21742 2.32141 -1.66198 -4.20507 3.96418 -4.50681 -4.28135 
2.02908 -2.18764 -4.28776 3.62536 -4.56082 -4.32539 3.53888 -4.55401 -4.33471 
3.79713 -4.549 -4.30452 3.7115 -4.56001 -4.3154 2.61793 -1.35034 -4.14186 
4.99514 -2.41038 -3.96711 5.02191 -2.49315 -3.97175 2.32564 -3.74591 -4.39899 
2.27562 -3.67486 -4.39812 2.78115 -4.14571 -4.38385 2.70941 -4.09618 -4.38749 
4.63089 -4.11789 -4.16833 4.56333 -4.17131 -4.18109 2.82649 -1.19812 -4.10366 
2.90123 -1.15523 -4.09105 4.69702 -4.06253 -4.15555 2.22909 -3.60112 -4.39659 
2.37954 -3.8145 -4.39918 4.20269 -1.30806 -3.9555 1.97711 -2.95634 -4.36545 
4.65851 -1.70999 -3.94052 4.96824 -2.32767 -3.96249 1.94825 -2.6978 -4.34465 
1.94894 -2.61122 -4.3365 4.88088 -2.08179 -3.94961 4.91191 -2.16301 -3.95361 
4.41053 -1.46586 -3.94629 2.68481 -1.29605 -4.1291 2.17631 -1.87588 -4.24173 
2.22164 -1.80263 -4.22968 2.63895 -4.04534 -4.39085 2.56896 -3.99307 -4.39403 
2.13389 -1.95117 -4.25363 2.97849 -1.11708 -4.0786 3.05814 -1.0841 -4.06635 
4.80729 -1.92415 -3.94337 4.47589 -1.52345 -3.94414 4.53938 -1.58301 -3.94239 
4.94014 -2.24535 -3.95805 4.49369 -4.22208 -4.19384 2.14566 -3.44839 -4.39195 
2.75432 -1.24516 -4.11635 3.14019 -1.05784 -4.05446 5.14225 -2.99996 -4.00518 
5.15083 -3.08621 -4.01223 4.12969 -1.26058 -3.95947 5.14321 -3.34567 -4.03732 
5.12685 -3.43047 -4.04711 1.99533 -3.04129 -4.37128 4.6004 -1.64516 -3.94116 
5.04733 -2.57629 -3.97658 5.07135 -2.65991 -3.98162 3.81921 -1.10514 -3.98071 
4.84637 -2.00178 -3.94612 2.99201 -4.29993 -4.37396 3.06443 -4.34796 -4.37011 
2.50162 -3.93848 -4.39669 3.39622 -1.02266 -4.02171 3.48247 -1.0262 -4.01211 
5.10136 -3.51294 -4.05774 5.11284 -2.82875 -3.99259 5.12936 -2.91395 -3.99864 
3.21345 -4.43761 -4.36132 4.87961 -3.87996 -4.1175 4.8217 -3.94359 -4.1301 
2.01817 -3.12512 -4.37647 5.15453 -3.17302 -4.01991 5.15262 -3.25951 -4.02819 
5.09317 -2.744 -3.98695 3.56863 -1.03668 -4.00317 4.9342 -3.81307 -4.10498 
3.22428 -1.03816 -4.04294 3.45479 -4.53575 -4.34269 5.06901 -3.59302 -4.06893 
2.37557 -1.59484 -4.19257 4.05491 -1.21634 -3.96395 2.05996 -2.10717 -4.2767 
2.09521 -2.02816 -4.26527 4.27695 -4.36293 -4.23193 3.88165 -4.53154 -4.29316 
2.04451 -3.20802 -4.38117 2.18571 -3.52578 -4.39456 4.76049 -4.0044 -4.14282 
3.3097 -1.02675 -4.03205 2.43215 -1.5299 -4.18 3.13796 -4.39513 -4.36604 
4.98452 -3.74328 -4.09267 2.43858 -3.87801 -4.39831 5.02953 -3.66958 -4.08062 

METADATA
INFORMATION 2
NAME L2_NORM_RANGE LOCATION vtkDataArray
DATA 2 5.07231 7.47399 
NAME L2_NORM_FINITE_RANGE LOCATION vtkDataArray
DATA 2 5.07231 7.47399 

LINES 120 360
2 0 1 
2 2 3 
2 4 5 
2 6 7 
2 8 9 
2 10 11 
2 12 13 
2 14 15 
2 16 17 
2 18 19 
2 20 21 
2 22 23 
2 24 25 
2 26 22 
2 27 28 
2 23 29 
2 15 30 
2 31 32 
2 33 34 
2 5 35 
2 36 37 
2 38 39 
2 40 41 
2 42 43 
2 44 45 
2 46 42 
2 39 47 
2 48 38 
2 49 12 
2 50 16 
2 51 24 
2 9 14 
2 52 36 
2 53 54 
2 55 56 
2 13 57 
2 35 58 
2 59 60 
2 61 62 
2 63 59 
2 64 65 
2 25 66 
2 67 68 
2 69 52 
2 70 10 
2 71 6 
2 58 72 
2 1 40 
2 65 73 
2 45 64 
2 74 75 
2 76 49 
2 77 78 
2 41 61 
2 79 50 
2 68 80 
2 72 44 
2 81 82 
2 21 83 
2 66 84 
2 60 27 
2 85 0 
2 86 85 
2 43 70 
2 17 53 
2 57 67 
2 84 55 
2 62 87 
2 88 89 
2 78 90 
2 54 8 
2 91 92 
2 3 93 
2 94 95 
2 96 79 
2 34 31 
2 75 97 
2 98 77 
2 82 99 
2 89 100 
2 100 20 
2 101 94 
2 73 102 
2 103 2 
2 80 51 
2 90 104 
2 28 105 
2 19 106 
2 30 107 
2 108 63 
2 11 109 
2 97 98 
2 110 33 
2 107 108 
2 83 18 
2 111 96 
2 106 76 
2 92 74 
2 112 71 
2 113 46 
2 102 114 
2 47 112 
2 115 4 
2 93 116 
2 116 86 
2 99 91 
2 29 110 
2 117 101 
2 114 88 
2 118 48 
2 87 118 
2 32 103 
2 56 69 
2 95 113 
2 37 81 
2 7 111 
2 109 26 
2 105 115 
2 119 117 
2 104 119 

CELL_DATA 120
SCALARS ModelFaceID int
LOOKUP_TABLE default
6 6 6 6 6 6 6 6 6 
6 6 6 6 6 6 6 6 6 
6 6 6 6 6 6 6 6 6 
6 6 6 6 6 6 6 6 6 
6 6 6 6 6 6 6 6 6 
6 6 6 6 6 6 6 6 6 
6 6 6 6 6 6 6 6 6 
6 6 6 6 6 6 6 6 6 
6 6 6 6 6 6 6 6 6 
6 6 6 6 6 6 6 6 6 
6 6 6 6 6 6 6 6 6 
6 6 6 6 6 6 6 6 6 
6 6 6 6 6 6 6 6 6 
6 6 6 
METADATA
INFORMATION 0

FIELD FieldData 1
GlobalElementID 1 120 int
1921543 441539 124061 127820 128706 120968 106554 265432 97392 
102948 122034 106972 335536 120591 124449 106273 129470 117267 
119552 493561 413185 125181 427641 456420 123671 457761 105317 
442308 55003 127946 394369 94798 454626 98495 310639 260077 
58321 129397 125573 563856 129687 238601 309215 251378 73290 
105172 47283 208062 129992 20038 416366 58622 29802 93921 
97262 6896 8332 454706 123644 237746 786570 333908 843408 
456800 93341 351510 14755 93907 129824 453452 97993 58457 
984212 457066 97474 108750 454701 455993 51063 24063 122044 
76576 42885 1295681 55535 456492 124531 109384 129460 1952405 
115152 251404 119383 129158 122012 94068 235326 307401 127863 
121495 129873 125194 123415 1956930 62394 394480 103762 121610 
55906 44547 125675 118784 357953 458375 305770 98114 92892 
123968 121115 17929 
METADATA
INFORMATION 0

POINT_DATA 120
SCALARS GlobalNodeID int
LOOKUP_TABLE default
59804 59442 41265 8 58294 58293 41375 41374 41355 
41354 34 33 59447 59448 41350 41349 41362 41361 
59449 41315 54474 59375 32 28 58471 59444 53657 
59458 59453 41266 41346 23 16 27 20 59726 
38778 78 190 41381 41257 59461 39 37 124 
41328 40 184 41384 41314 41366 32644 38779 41357 
41221 41294 84 59445 128 41343 59457 41387 202 
41341 120 41325 41295 59446 58789 41291 36 41380 
41332 116 66 41249 41313 59443 41270 41367 58790 
77 41286 59374 90 41258 41259 41386 59753 59752 
58 72 41279 7 47 43 41215 63 41273 
41285 59373 48 41327 19 57 59454 41318 41345 
41342 59809 24 41370 41378 42 59727 59450 58793 
52 196 53 
METADATA
INFORMATION 0

